# vtk DataFile Version 3.0
Wind velocity at unstructured points
ASCII

DATASET POLYDATA
POINTS 27 float
1.00 1.00 1.00
1.00 2.00 1.00
1.00 3.00 1.00
2.00 1.00 1.00
2.00 2.00 1.00
2.00 3.00 1.00
3.00 1.00 1.00
3.00 2.00 1.00
3.00 3.00 1.00
1.00 1.00 2.00
1.00 2.00 2.00
1.00 3.00 2.00
2.00 1.00 2.00
2.00 2.00 2.00
2.00 3.00 2.00
3.00 1.00 2.00
3.00 2.00 2.00
3.00 3.00 2.00
1.00 1.00 3.00
1.00 2.00 3.00
1.00 3.00 3.00
2.00 1.00 3.00
2.00 2.00 3.00
2.00 3.00 3.00
3.00 1.00 3.00
3.00 2.00 3.00
3.00 3.00 3.00

POINT_DATA 27
VECTORS point_vectors float
1.00 1.50 3.00
1.00 1.50 3.00
1.00 1.50 3.00
1.00 2.50 3.00
1.00 2.50 3.00
1.00 2.50 3.00
1.00 3.50 3.00
1.00 3.50 3.00
1.00 3.50 3.00
1.00 1.50 3.00
1.00 1.50 3.00
1.00 1.50 3.00
1.00 2.50 3.00
1.00 2.50 3.00
1.00 2.50 3.00
1.00 3.50 3.00
1.00 3.50 3.00
1.00 3.50 3.00
1.00 1.50 3.00
1.00 1.50 3.00
1.00 1.50 3.00
1.00 2.50 3.00
1.00 2.50 3.00
1.00 2.50 3.00
1.00 3.50 3.00
1.00 3.50 3.00
1.00 3.50 3.00