# vtk DataFile Version 3.0
Wind velocity at unstructured points
ASCII

DATASET POLYDATA
POINTS 100 float
1.00 1.00 0.00
1.00 2.00 0.00
1.00 3.00 0.00
1.00 4.00 0.00
1.00 5.00 0.00
1.00 6.00 0.00
1.00 7.00 0.00
1.00 8.00 0.00
1.00 9.00 0.00
1.00 10.00 0.00
2.00 1.00 0.00
2.00 2.00 0.00
2.00 3.00 0.00
2.00 4.00 0.00
2.00 5.00 0.00
2.00 6.00 0.00
2.00 7.00 0.00
2.00 8.00 0.00
2.00 9.00 0.00
2.00 10.00 0.00
3.00 1.00 0.00
3.00 2.00 0.00
3.00 3.00 0.00
3.00 4.00 0.00
3.00 5.00 0.00
3.00 6.00 0.00
3.00 7.00 0.00
3.00 8.00 0.00
3.00 9.00 0.00
3.00 10.00 0.00
4.00 1.00 0.00
4.00 2.00 0.00
4.00 3.00 0.00
4.00 4.00 0.00
4.00 5.00 0.00
4.00 6.00 0.00
4.00 7.00 0.00
4.00 8.00 0.00
4.00 9.00 0.00
4.00 10.00 0.00
5.00 1.00 0.00
5.00 2.00 0.00
5.00 3.00 0.00
5.00 4.00 0.00
5.00 5.00 0.00
5.00 6.00 0.00
5.00 7.00 0.00
5.00 8.00 0.00
5.00 9.00 0.00
5.00 10.00 0.00
6.00 1.00 0.00
6.00 2.00 0.00
6.00 3.00 0.00
6.00 4.00 0.00
6.00 5.00 0.00
6.00 6.00 0.00
6.00 7.00 0.00
6.00 8.00 0.00
6.00 9.00 0.00
6.00 10.00 0.00
7.00 1.00 0.00
7.00 2.00 0.00
7.00 3.00 0.00
7.00 4.00 0.00
7.00 5.00 0.00
7.00 6.00 0.00
7.00 7.00 0.00
7.00 8.00 0.00
7.00 9.00 0.00
7.00 10.00 0.00
8.00 1.00 0.00
8.00 2.00 0.00
8.00 3.00 0.00
8.00 4.00 0.00
8.00 5.00 0.00
8.00 6.00 0.00
8.00 7.00 0.00
8.00 8.00 0.00
8.00 9.00 0.00
8.00 10.00 0.00
9.00 1.00 0.00
9.00 2.00 0.00
9.00 3.00 0.00
9.00 4.00 0.00
9.00 5.00 0.00
9.00 6.00 0.00
9.00 7.00 0.00
9.00 8.00 0.00
9.00 9.00 0.00
9.00 10.00 0.00
10.00 1.00 0.00
10.00 2.00 0.00
10.00 3.00 0.00
10.00 4.00 0.00
10.00 5.00 0.00
10.00 6.00 0.00
10.00 7.00 0.00
10.00 8.00 0.00
10.00 9.00 0.00
10.00 10.00 0.00

POINT_DATA 100
VECTORS point_vectors float
1.00 1.50 0.00
1.00 1.50 0.00
1.00 1.50 0.00
1.00 1.50 0.00
1.00 1.50 0.00
1.00 1.50 0.00
1.00 1.50 0.00
1.00 1.50 0.00
1.00 1.50 0.00
1.00 1.50 0.00
1.00 2.00 0.00
1.00 2.00 0.00
1.00 2.00 0.00
1.00 2.00 0.00
1.00 2.00 0.00
1.00 2.00 0.00
1.00 2.00 0.00
1.00 2.00 0.00
1.00 2.00 0.00
1.00 2.00 0.00
1.00 2.50 0.00
1.00 2.50 0.00
1.00 2.50 0.00
1.00 2.50 0.00
1.00 2.50 0.00
1.00 2.50 0.00
1.00 2.50 0.00
1.00 2.50 0.00
1.00 2.50 0.00
1.00 2.50 0.00
1.00 3.00 0.00
1.00 3.00 0.00
1.00 3.00 0.00
1.00 3.00 0.00
1.00 3.00 0.00
1.00 3.00 0.00
1.00 3.00 0.00
1.00 3.00 0.00
1.00 3.00 0.00
1.00 3.00 0.00
1.00 3.50 0.00
1.00 3.50 0.00
1.00 3.50 0.00
1.00 3.50 0.00
1.00 3.50 0.00
1.00 3.50 0.00
1.00 3.50 0.00
1.00 3.50 0.00
1.00 3.50 0.00
1.00 3.50 0.00
1.00 4.00 0.00
1.00 4.00 0.00
1.00 4.00 0.00
1.00 4.00 0.00
1.00 4.00 0.00
1.00 4.00 0.00
1.00 4.00 0.00
1.00 4.00 0.00
1.00 4.00 0.00
1.00 4.00 0.00
1.00 4.50 0.00
1.00 4.50 0.00
1.00 4.50 0.00
1.00 4.50 0.00
1.00 4.50 0.00
1.00 4.50 0.00
1.00 4.50 0.00
1.00 4.50 0.00
1.00 4.50 0.00
1.00 4.50 0.00
1.00 5.00 0.00
1.00 5.00 0.00
1.00 5.00 0.00
1.00 5.00 0.00
1.00 5.00 0.00
1.00 5.00 0.00
1.00 5.00 0.00
1.00 5.00 0.00
1.00 5.00 0.00
1.00 5.00 0.00
1.00 5.50 0.00
1.00 5.50 0.00
1.00 5.50 0.00
1.00 5.50 0.00
1.00 5.50 0.00
1.00 5.50 0.00
1.00 5.50 0.00
1.00 5.50 0.00
1.00 5.50 0.00
1.00 5.50 0.00
1.00 6.00 0.00
1.00 6.00 0.00
1.00 6.00 0.00
1.00 6.00 0.00
1.00 6.00 0.00
1.00 6.00 0.00
1.00 6.00 0.00
1.00 6.00 0.00
1.00 6.00 0.00
1.00 6.00 0.00
