# vtk DataFile Version 3.0
Wind velocity at unstructured points
ASCII

DATASET POLYDATA
POINTS 9 float
1.00 1.00 0.00
1.00 2.00 0.00
1.00 3.00 0.00
2.00 1.00 0.00
2.00 2.00 0.00
2.00 3.00 0.00
3.00 1.00 0.00
3.00 2.00 0.00
3.00 3.00 0.00

POINT_DATA 9
VECTORS point_vectors float
1.00 1.50 0.00
1.00 1.50 0.00
1.00 1.50 0.00
1.00 2.50 0.00
1.00 2.50 0.00
1.00 2.50 0.00
1.00 3.50 0.00
1.00 3.50 0.00
1.00 3.50 0.00