# vtk DataFile Version 3.0
Velocity vectors based on table
ASCII

DATASET STRUCTURED_POINTS
DIMENSIONS 2 2 2
ORIGIN 0 0 0
SPACING 1 1 1

POINT_DATA 8
VECTORS point_vectors float
1.0 1.0 0.0
1.0 2.0 0.0
2.0 2.0 0.0
2.0 2.0 0.0
1.0 1.0 0.0
1.0 2.0 0.0
2.0 2.0 0.0
2.0 2.0 0.0