# vtk DataFile Version 3.0
Cube with different colored sides
ASCII

DATASET POLYDATA
POINTS 8 float
0 0 0
1 0 0
1 1 0
0 1 0
0 0 1
1 0 1
1 1 1
0 1 1

POLYGONS 6 30
4 0 1 2 3
4 0 3 7 4
4 0 1 5 4
4 4 5 6 7
4 3 2 6 7
4 1 2 6 5

CELL_DATA 6
SCALARS cell_scalars int 1
LOOKUP_TABLE default
1
2
3
4
5
6