# vtk DataFile Version 3.0
Wind velocity at unstructured points
ASCII

DATASET STRUCTURED_POINTS
DIMENSIONS 2 2 2
ORIGIN 0.0 0.0 0.0
SPACING 1.0 1.0 1.0

POINT_DATA 8
VECTORS point_vectors float
1.0 1.0 0.0
1.0 2.0 0.0
2.0 2.0 0.0
2.0 2.0 0.0
1.0 1.0 0.0
1.0 2.0 0.0
2.0 2.0 0.0
2.0 2.0 0.0